9	0	*	1
18	0	4.57e-110/146aa/100.000%	1
8	0	2.55e-37/145aa/43.448%	1
17	0	2.55e-37/145aa/43.448%	1
11	1	*	1
15	2	*	1
12	3	*	1
16	3	1.92e-16/88aa/35.227%	1
20	4	*	1
0	5	*	1
1	5	1.64e-62/87aa/100.000%	1
10	6	*	1
4	7	*	1
2	7	3.03e-42/63aa/96.825%	1
3	8	*	1
5	8	1.75e-42/58aa/100.000%	1
19	8	1.75e-42/58aa/100.000%	1
14	9	*	1
6	10	*	1
7	10	9.12e-39/53aa/100.000%	1
13	11	*	1
