8	0	*	1
293	1	*	1
121	2	*	1
292	3	*	1
74	4	*	1
73	4	0.0/374aa/97.326%	1
150	5	*	1
167	6	*	1
156	7	*	1
63	8	*	1
119	8	0.0/298aa/100.000%	1
155	7	0.0/278aa/99.640%	1
40	9	*	1
41	9	9.61e-167/275aa/99.273%	1
141	10	*	1
54	11	*	1
154	12	*	1
52	13	*	1
275	14	*	1
170	15	*	1
216	13	1.28e-60/234aa/42.735%	1
285	16	*	1
118	10	2.51e-13/238aa/28.151%	1
117	10	2.77e-20/236aa/29.661%	1
171	17	*	1
172	17	5.56e-164/212aa/99.528%	1
45	18	*	1
64	19	*	1
120	19	3.22e-157/207aa/99.517%	1
102	20	*	1
39	21	*	1
111	22	*	1
10	23	*	1
11	23	8.50e-109/188aa/99.468%	1
281	24	*	1
13	19	5.19e-49/186aa/49.462%	1
71	19	1.91e-49/186aa/48.925%	1
72	19	4.41e-49/186aa/48.925%	1
149	19	6.45e-50/186aa/49.462%	1
77	25	*	1
68	26	*	1
62	20	7.90e-92/165aa/99.394%	1
165	27	*	1
91	28	*	1
92	28	3.16e-123/164aa/100.000%	1
93	28	8.43e-121/164aa/97.561%	1
122	28	2.63e-121/164aa/98.780%	1
198	28	2.41e-121/164aa/98.171%	1
37	29	*	1
114	29	1.87e-119/157aa/100.000%	1
161	29	1.87e-119/157aa/100.000%	1
61	30	*	1
123	30	2.29e-119/155aa/100.000%	1
213	30	2.29e-119/155aa/100.000%	1
201	31	*	1
202	31	4.26e-111/154aa/98.701%	1
42	31	2.67e-109/153aa/98.039%	1
43	31	4.03e-97/152aa/86.184%	1
88	25	3.12e-34/124aa/45.968%	1
99	31	2.67e-109/153aa/98.039%	1
148	31	4.03e-97/152aa/86.184%	1
152	31	4.03e-97/152aa/86.184%	1
200	31	2.67e-109/153aa/98.039%	1
282	31	2.67e-109/153aa/98.039%	1
87	25	1.39e-38/128aa/45.312%	1
3	31	1.70e-107/151aa/98.013%	1
4	31	1.70e-107/151aa/98.013%	1
32	32	*	1
33	32	3.11e-112/150aa/98.667%	1
34	32	1.49e-111/150aa/98.000%	1
35	32	3.11e-112/150aa/98.667%	1
36	32	4.86e-113/150aa/99.333%	1
38	33	*	1
53	34	*	1
128	34	6.49e-112/149aa/100.000%	1
140	34	6.49e-112/149aa/100.000%	1
146	34	3.01e-107/149aa/97.315%	1
173	34	1.58e-107/149aa/97.315%	1
174	34	1.58e-107/149aa/97.315%	1
175	34	1.58e-107/149aa/97.315%	1
176	34	1.58e-107/149aa/97.315%	1
177	34	8.09e-107/149aa/97.315%	1
178	34	3.48e-107/149aa/97.315%	1
179	34	4.67e-107/149aa/97.315%	1
180	34	4.67e-107/149aa/97.315%	1
181	34	3.51e-107/149aa/97.315%	1
182	34	3.51e-107/149aa/97.315%	1
183	34	3.51e-107/149aa/97.315%	1
184	34	3.51e-107/149aa/97.315%	1
185	34	3.51e-107/149aa/97.315%	1
186	34	3.51e-107/149aa/97.315%	1
187	34	2.58e-107/149aa/97.315%	1
188	34	2.58e-107/149aa/97.315%	1
189	34	1.78e-107/149aa/97.315%	1
190	34	1.78e-107/149aa/97.315%	1
191	34	3.01e-107/149aa/97.315%	1
192	34	3.01e-107/149aa/97.315%	1
193	34	3.01e-107/149aa/97.315%	1
194	34	3.01e-107/149aa/97.315%	1
195	34	3.01e-107/149aa/97.315%	1
196	34	3.01e-107/149aa/97.315%	1
197	34	4.10e-107/149aa/97.315%	1
205	34	4.05e-107/149aa/97.315%	1
208	34	9.13e-107/149aa/95.302%	1
211	34	2.22e-106/149aa/95.302%	1
212	34	3.44e-107/149aa/97.315%	1
215	34	8.85e-111/149aa/99.329%	1
249	34	3.51e-107/149aa/97.315%	1
250	34	1.90e-107/149aa/97.315%	1
66	35	*	1
76	25	7.10e-111/146aa/99.315%	1
277	35	9.33e-109/146aa/100.000%	1
94	20	2.34e-78/144aa/99.306%	1
65	35	5.21e-36/145aa/43.448%	1
276	35	5.21e-36/145aa/43.448%	1
241	34	8.98e-90/137aa/91.241%	1
129	34	1.20e-100/136aa/99.265%	1
130	34	3.74e-101/136aa/99.265%	1
131	34	7.15e-101/136aa/99.265%	1
132	34	7.15e-101/136aa/99.265%	1
133	34	5.80e-101/136aa/99.265%	1
134	34	5.80e-101/136aa/99.265%	1
135	34	3.28e-101/136aa/99.265%	1
136	34	1.61e-100/136aa/99.265%	1
137	34	3.17e-101/136aa/99.265%	1
138	34	1.61e-100/136aa/99.265%	1
139	34	3.17e-101/136aa/99.265%	1
144	34	7.38e-89/136aa/91.176%	1
203	34	9.22e-86/136aa/87.500%	1
210	34	7.38e-89/136aa/91.176%	1
254	34	5.73e-89/136aa/91.176%	1
278	34	5.67e-89/136aa/91.176%	1
220	34	1.08e-88/135aa/91.111%	1
221	34	3.02e-82/135aa/91.111%	1
222	34	1.08e-88/135aa/91.111%	1
223	34	1.08e-88/135aa/91.111%	1
224	34	4.97e-88/135aa/91.111%	1
225	34	1.57e-88/135aa/91.111%	1
226	34	2.09e-88/135aa/91.111%	1
227	34	2.09e-88/135aa/91.111%	1
228	34	2.09e-88/135aa/91.111%	1
229	34	2.09e-88/135aa/91.111%	1
230	34	2.09e-88/135aa/91.111%	1
231	34	1.12e-88/135aa/91.111%	1
232	34	1.12e-88/135aa/91.111%	1
233	34	1.04e-88/135aa/91.111%	1
234	34	1.04e-88/135aa/91.111%	1
235	34	1.75e-88/135aa/91.111%	1
236	34	1.32e-88/135aa/91.111%	1
237	34	1.66e-88/135aa/91.111%	1
238	34	1.66e-88/135aa/91.111%	1
239	34	1.66e-88/135aa/91.111%	1
240	34	2.69e-88/135aa/91.111%	1
242	34	1.66e-88/135aa/91.111%	1
243	34	2.97e-88/135aa/91.111%	1
244	34	2.93e-96/135aa/97.037%	1
245	34	8.60e-96/135aa/96.296%	1
246	34	8.05e-96/135aa/96.296%	1
247	34	4.86e-96/135aa/96.296%	1
248	34	1.07e-95/135aa/96.296%	1
251	34	2.09e-88/135aa/91.111%	1
255	34	2.09e-88/135aa/91.111%	1
256	34	2.09e-88/135aa/91.111%	1
257	34	1.81e-88/135aa/91.111%	1
262	34	1.32e-88/135aa/91.111%	1
263	34	1.66e-88/135aa/91.111%	1
265	34	6.33e-88/135aa/91.111%	1
267	34	1.75e-88/135aa/91.111%	1
268	34	1.66e-88/135aa/91.111%	1
270	34	1.66e-88/135aa/91.111%	1
284	34	2.28e-88/135aa/91.111%	1
153	13	5.55e-95/131aa/100.000%	1
98	36	*	1
0	36	3.43e-55/128aa/59.375%	1
96	36	1.99e-56/128aa/60.938%	1
97	36	1.99e-56/128aa/60.938%	1
101	37	*	1
199	36	1.99e-56/128aa/60.938%	1
280	36	1.99e-56/128aa/60.938%	1
286	36	1.99e-56/128aa/60.938%	1
89	38	*	1
126	38	1.48e-85/124aa/100.000%	1
269	38	1.48e-85/124aa/100.000%	1
289	38	1.48e-85/124aa/100.000%	1
290	38	1.48e-85/124aa/100.000%	1
207	39	*	1
100	40	*	1
206	41	*	1
271	38	4.99e-76/113aa/100.000%	1
273	42	*	1
103	43	*	1
1	44	*	1
2	44	8.02e-82/110aa/100.000%	1
12	44	8.02e-82/110aa/100.000%	1
20	44	8.02e-82/110aa/100.000%	1
21	44	8.02e-82/110aa/100.000%	1
22	44	8.02e-82/110aa/100.000%	1
59	44	8.02e-82/110aa/100.000%	1
219	45	*	1
217	40	1.38e-16/92aa/33.696%	1
55	46	*	1
50	40	2.12e-12/80aa/35.000%	1
51	40	2.12e-12/80aa/35.000%	1
142	40	1.28e-12/80aa/35.000%	1
143	40	1.28e-12/80aa/35.000%	1
274	40	3.04e-12/80aa/35.000%	1
26	47	*	1
70	48	*	1
75	47	5.14e-76/104aa/100.000%	1
124	47	5.14e-76/104aa/100.000%	1
151	47	5.14e-76/104aa/100.000%	1
266	48	6.33e-76/104aa/100.000%	1
291	47	5.14e-76/104aa/100.000%	1
29	26	1.77e-71/99aa/98.990%	1
69	49	*	1
259	49	2.23e-67/99aa/94.949%	1
260	49	2.23e-67/99aa/94.949%	1
14	50	*	1
15	50	3.35e-61/87aa/100.000%	1
95	51	*	1
125	51	1.83e-55/96aa/100.000%	1
58	52	*	1
110	5	1.43e-60/87aa/100.000%	1
104	53	*	1
105	53	1.26e-59/85aa/98.824%	1
106	53	1.93e-59/86aa/97.674%	1
107	53	1.01e-59/86aa/97.674%	1
108	53	1.30e-59/86aa/97.674%	1
109	53	1.16e-59/86aa/97.674%	1
115	54	*	1
164	55	*	1
214	55	2.24e-58/83aa/100.000%	1
5	56	*	1
147	57	*	1
162	58	*	1
279	58	1.79e-39/76aa/98.684%	1
78	58	2.22e-38/75aa/98.667%	1
81	58	2.22e-38/75aa/98.667%	1
264	58	2.22e-38/75aa/98.667%	1
287	59	*	1
288	60	*	1
82	61	*	1
83	61	3.63e-46/67aa/98.507%	1
84	61	5.72e-45/67aa/97.015%	1
85	61	2.25e-45/67aa/97.015%	1
86	61	5.45e-46/67aa/98.507%	1
9	62	*	1
28	62	1.42e-44/66aa/100.000%	1
127	62	1.42e-44/66aa/100.000%	1
23	62	9.92e-33/64aa/79.688%	1
27	62	2.51e-33/64aa/79.688%	1
16	62	4.64e-32/61aa/81.967%	1
30	63	*	1
49	64	*	1
90	63	1.88e-42/62aa/100.000%	1
252	64	5.59e-44/62aa/100.000%	1
79	65	*	1
80	65	8.96e-41/61aa/100.000%	1
168	65	8.96e-41/61aa/100.000%	1
169	65	3.03e-40/61aa/98.361%	1
17	66	*	1
24	66	3.57e-41/58aa/100.000%	1
31	66	3.57e-41/58aa/100.000%	1
283	66	3.57e-41/58aa/100.000%	1
25	67	*	1
163	67	1.52e-40/57aa/100.000%	1
60	65	2.08e-32/55aa/89.091%	1
112	65	2.08e-32/55aa/89.091%	1
113	65	2.08e-32/55aa/89.091%	1
116	67	7.19e-18/56aa/53.571%	1
166	65	2.08e-32/55aa/89.091%	1
204	67	6.37e-18/56aa/53.571%	1
209	65	6.65e-32/54aa/88.889%	1
261	65	2.08e-32/55aa/89.091%	1
258	68	*	1
44	69	*	1
46	69	1.86e-37/53aa/100.000%	1
47	69	1.86e-37/53aa/100.000%	1
48	69	1.86e-37/53aa/100.000%	1
253	69	1.86e-37/53aa/100.000%	1
67	70	*	1
18	71	*	1
157	72	*	1
158	72	2.88e-22/35aa/97.143%	1
159	72	1.05e-22/35aa/97.143%	1
160	72	1.15e-21/35aa/94.286%	1
6	73	*	1
56	74	*	1
57	75	*	1
218	76	*	1
145	74	1.49e-13/29aa/96.552%	1
7	77	*	1
19	78	*	1
272	79	*	1
